<?xml version="1.0" encoding="UTF-8"?>

<!-- generated on 2024-05-04 05:05:29 by Eclipse SUMO GUI Version 1.19.0
<configuration xmlns:xsi="http://www.w3.org/2001/XMLSchema-instance" xsi:noNamespaceSchemaLocation="http://sumo.dlr.de/xsd/sumoConfiguration.xsd">

    <input>
        <net-file value="Layout.net.xml"/>
        <route-files value="car.rou.xml"/>
        <additional-files value="ParkingSpaces.add.xml,vehicles.vType.xml"/>
    </input>

    <output>
        <tripinfo-output value="tripinfo.xml"/>
    </output>

    <time>
        <begin value="0.0"/>
        <step-length value=".25"/>
    </time>

    <traci_server>
        <remote-port value="59065"/>
    </traci_server>

</configuration>
-->

<tripinfos xmlns:xsi="http://www.w3.org/2001/XMLSchema-instance" xsi:noNamespaceSchemaLocation="http://sumo.dlr.de/xsd/tripinfo_file.xsd">
</tripinfos>
