<?xml version="1.0" encoding="UTF-8"?>

<!-- generated on 2024-05-18 20:30:26 by Eclipse SUMO GUI Version 1.19.0
<configuration xmlns:xsi="http://www.w3.org/2001/XMLSchema-instance" xsi:noNamespaceSchemaLocation="http://sumo.dlr.de/xsd/sumoConfiguration.xsd">

    <input>
        <net-file value="Layout.net.xml"/>
        <route-files value="car.rou.xml"/>
        <additional-files value="ParkingSpaces.add.xml,vehicles.vType.xml"/>
    </input>

    <output>
        <tripinfo-output value="tripinfo.xml"/>
    </output>

    <time>
        <begin value="0"/>
        <end value="10000"/>
        <step-length value=".25"/>
    </time>

    <traci_server>
        <remote-port value="58272"/>
    </traci_server>

</configuration>
-->

<tripinfos xmlns:xsi="http://www.w3.org/2001/XMLSchema-instance" xsi:noNamespaceSchemaLocation="http://sumo.dlr.de/xsd/tripinfo_file.xsd">
    <tripinfo id="car1" depart="0.00" departLane="0a_0" departPos="4.60" departSpeed="0.00" departDelay="0.00" arrival="55.00" arrivalLane="1b_0" arrivalPos="33.22" arrivalSpeed="7.94" duration="55.00" routeLength="202.53" waitingTime="4.25" waitingCount="1" stopTime="24.25" timeLoss="5.19" rerouteNo="1" devices="tripinfo_car1 routing_car1" vType="reroutingType" speedFactor="0.98" vaporized="traci"/>
</tripinfos>
